 Q-Chem 5.2 (devel), Q-Chem, Inc., Pleasanton, CA (2019)
 Q-Chem 5.2.0 for Intel X86 EM64T Linux

User input:
--------------------------------------------------------------
$comment
Uracil XPS C K-edge 6-311(2+,+)G** (uc)
Optimized geometry for S1 at ccsd / aug-cc-pVDZ
$end

$molecule
0 1
C        -0.0042112405   -1.7549930536    0.0000000000
H        -2.0949460216   -1.4184138214    0.0000000000
H        -0.1300971688   -2.8358204634    0.0000000000
H         0.0374086733    2.0243048927    0.0000000000
C        -1.2210197500    0.4010705948    0.0000000000
O        -2.2535781024    1.0567627444    0.0000000000
C         1.2399442445    0.2839850904    0.0000000000
O         2.3361887279    1.0691923037    0.0000000000
N         0.0349480223    1.0125648826    0.0000000000
N        -1.1853832587   -0.9770870742    0.0000000000
C         1.2251302704   -1.1165150648    0.0000000000
H         2.1596039787   -1.6767971209    0.0000000000
$end

$rem
JOBTYPE SP
BASIS GENERAL
METHOD HF
n_frozen_core = 2
$end

$basis
H    0
6-311(2+,+)G**
****
O    0
S    1    1.000000
   8.58850000E+03    1.89515000E-03
S    1    1.000000
   1.29723000E+03    1.43859000E-02
S    1    1.000000
   2.99296000E+02    7.07320000E-02
S    1    1.000000
   8.73771000E+01    2.40001000E-01
S    1    1.000000
   2.56789000E+01    5.94797000E-01
S    1    1.000000
   3.74004000E+00    2.80802000E-01
SP   3    1.000000
   4.21175000E+01    1.13889000E-01   3.65114000E-02
   9.62837000E+00    9.20811000E-01   2.37153000E-01
   2.85332000E+00   -3.27447000E-03   8.19702000E-01
SP   1    1.000000
   9.05661000E-01    1.00000000E+00   1.00000000E+00
SP   1    1.000000
   2.55611000E-01    1.00000000E+00   1.00000000E+00
SP   1    1.000000
   8.45000000E-02    1.00000000E+00   1.00000000E+00
SP   1    1.000000
   2.54518072E-02    1.00000000E+00   1.00000000E+00
D    1    1.000000
   1.29200000E+00    1.00000000E+00
****
N    0
S    1    1.000000
   6.29348000E+03    1.96979000E-03
S    1    1.000000
   9.49044000E+02    1.49613000E-02
S    1    1.000000
   2.18776000E+02    7.35006000E-02
S    1    1.000000
   6.36916000E+01    2.48937000E-01
S    1    1.000000
   1.88282000E+01    6.02460000E-01
S    1    1.000000
   2.72023000E+00    2.56202000E-01
SP   3    1.000000
   3.06331000E+01    1.11906000E-01   3.83119000E-02
   7.02614000E+00    9.21666000E-01   2.37403000E-01
   2.11205000E+00   -2.56919000E-03   8.17592000E-01
SP   1    1.000000
   6.84009000E-01    1.00000000E+00   1.00000000E+00
SP   1    1.000000
   2.00878000E-01    1.00000000E+00   1.00000000E+00
SP   1    1.000000
   6.39000000E-02    1.00000000E+00   1.00000000E+00
SP   1    1.000000
   1.92469880E-02    1.00000000E+00   1.00000000E+00
D    1    1.000000
   9.13000000E-01    1.00000000E+00
****
C    0
S    1    1.000000
   4.56324000E+03    1.96665000E-03
S    1    1.000000
   6.82024000E+02    1.52306000E-02
S    1    1.000000
   1.54973000E+02    7.61269000E-02
S    1    1.000000
   4.44553000E+01    2.60801000E-01
S    1    1.000000
   1.30290000E+01    6.16462000E-01
S    1    1.000000
   1.82773000E+00    2.21006000E-01
SP   3    1.000000
   2.09642000E+01    1.14660000E-01   4.02487000E-02
   4.80331000E+00    9.19999000E-01   2.37594000E-01
   1.45933000E+00   -3.03068000E-03   8.15854000E-01
SP   1    1.000000
   4.83456000E-01    1.00000000E+00   1.00000000E+00
SP   1    1.000000
   1.45585000E-01    1.00000000E+00   1.00000000E+00
SP   1    1.000000
   4.38000000E-02    1.00000000E+00   1.00000000E+00
SP   1    1.000000
   1.31927711E-02    1.00000000E+00   1.00000000E+00
D    1    1.000000
   6.26000000E-01    1.00000000E+00
****
$end

--------------------------------------------------------------

   13    -412.5399374747      9.08e-06  Convergence criterion met
 Total energy in the final basis set =     -412.5399374747
 Total job time:  24.77s(wall), 91.58s(cpu)
        *  Thank you very much for using Q-Chem.  Have a nice day.  *

User input: 2 of 2

                  Welcome to Q-Chem
     A Quantum Leap Into The Future Of Chemistry

 Q-Chem 5.2 (devel), Q-Chem, Inc., Pleasanton, CA (2019)

 Yihan Shao,  Zhengting Gan,  E. Epifanovsky,  A. T. B. Gilbert,  M. Wormit,
 J. Kussmann,  A. W. Lange,  A. Behn,  Jia Deng,  Xintian Feng,  D. Ghosh,
 M. Goldey,  P. R. Horn,  L. D. Jacobson,  I. Kaliman,  T. Kus,  A. Landau,
 Jie Liu,  E. I. Proynov,  R. M. Richard,  R. P. Steele,  E. J. Sundstrom,
 H. L. Woodcock III,  P. M. Zimmerman,  D. Zuev,  B. Albrecht,  E. Alguire,
 S. A. Baeppler,  D. Barton,  Z. Benda,  Y. A. Bernard,  E. J. Berquist,
 K. B. Bravaya,  H. Burton,  D. Casanova,  Chun-Min Chang,  Yunqing Chen,
 A. Chien,  K. D. Closser,  M. P. Coons,  S. Coriani,  S. Dasgupta,
 A. L. Dempwolff,  M. Diedenhofen,  Hainam Do,  R. G. Edgar,  Po-Tung Fang,
 S. Faraji,  S. Fatehi,  Qingguo Feng,  K. D. Fenk,  J. Fosso-Tande,
 J. Gayvert,  Qinghui Ge,  A. Ghysels,  G. Gidofalvi,  J. Gomes,
 J. Gonthier,  A. Gunina,  D. Hait,  M. W. D. Hanson-Heine,
 P. H. P. Harbach,  A. W. Hauser,  M. F. Herbst,  J. E. Herr,
 E. G. Hohenstein,  Z. C. Holden,  Kerwin Hui,  B. C. Huynh,  T.-C. Jagau,
 Hyunjun Ji,  B. Kaduk,  K. Khistyaev,  Jaehoon Kim,  P. Klunzinger,  K. Koh,
 D. Kosenkov,  L. Koulias,  T. Kowalczyk,  C. M. Krauter,  A. Kunitsa,
 Ka Un Lao,  A. Laurent,  K. V. Lawler,  Joonho Lee,  D. Lefrancois,
 S. Lehtola,  D. S. Levine,  Yi-Pei Li,  You-Sheng Lin,  Fenglai Liu,
 E. Livshits,  A. Luenser,  P. Manohar,  E. Mansoor,  S. F. Manzer,
 Shan-Ping Mao,  Yuezhi Mao,  N. Mardirossian,  A. V. Marenich,
 T. Markovich,  L. A. Martinez-Martinez,  S. A. Maurer,  N. J. Mayhall,
 S. C. McKenzie,  J.-M. Mewes,  P. Morgante,  A. F. Morrison,
 J. W. Mullinax,  K. Nanda,  T. S. Nguyen-Beck,  R. Olivares-Amaya,
 J. A. Parkhill,  Zheng Pei,  T. M. Perrine,  F. Plasser,  P. Pokhilko,
 S. Prager,  A. Prociuk,  E. Ramos,  D. R. Rehn,  F. Rob,  M. Scheurer,
 M. Schneider,  N. Sergueev,  S. M. Sharada,  S. Sharma,  D. W. Small,
 T. Stauch,  T. Stein,  Yu-Chuan Su,  A. J. W. Thom,  A. Tkatchenko,
 T. Tsuchimochi,  N. M. Tubman,  L. Vogt,  M. L. Vidal,  O. Vydrov,
 M. A. Watson,  J. Wenzel,  M. de Wergifosse,  T. A. Wesolowski,  A. White,
 J. Witte,  A. Yamada,  Jun Yang,  K. Yao,  S. Yeganeh,  S. R. Yost,
 Zhi-Qiang You,  A. Zech,  Igor Ying Zhang,  Xing Zhang,  Yan Zhao,
 Ying Zhu,  B. R. Brooks,  G. K. L. Chan,  C. J. Cramer,  M. S. Gordon,
 W. J. Hehre,  A. Klamt,  M. W. Schmidt,  C. D. Sherrill,  D. G. Truhlar,
 A. Aspuru-Guzik,  R. Baer,  A. T. Bell,  N. A. Besley,  Jeng-Da Chai,
 A. E. DePrince, III,  R. A. DiStasio Jr.,  A. Dreuw,  B. D. Dunietz,
 T. R. Furlani,  Chao-Ping Hsu,  Yousung Jung,  Jing Kong,  D. S. Lambrecht,
 WanZhen Liang,  C. Ochsenfeld,  V. A. Rassolov,  L. V. Slipchenko,
 J. E. Subotnik,  T. Van Voorhis,  J. M. Herbert,  A. I. Krylov,
 P. M. W. Gill,  M. Head-Gordon

 Contributors to earlier versions of Q-Chem not listed above:
 R. D. Adamson,  B. Austin,  J. Baker,  G. J. O. Beran,  K. Brandhorst,
 S. T. Brown,  E. F. C. Byrd,  A. K. Chakraborty,  C.-L. Cheng,
 Siu Hung Chien,  D. M. Chipman,  D. L. Crittenden,  H. Dachsel,
 R. J. Doerksen,  A. D. Dutoi,  L. Fusti-Molnar,  W. A. Goddard III,
 A. Golubeva-Zadorozhnaya,  S. R. Gwaltney,  G. Hawkins,  A. Heyden,
 S. Hirata,  G. Kedziora,  F. J. Keil,  C. Kelley,  Jihan Kim,  R. A. King,
 R. Z. Khaliullin,  P. P. Korambath,  W. Kurlancheek,  A. M. Lee,  M. S. Lee,
 S. V. Levchenko,  Ching Yeh Lin,  D. Liotard,  R. C. Lochan,  I. Lotan,
 P. E. Maslen,  N. Nair,  D. P. O'Neill,  D. Neuhauser,  E. Neuscamman,
 C. M. Oana,  R. Olson,  B. Peters,  R. Peverati,  P. A. Pieniazek,
 Y. M. Rhee,  J. Ritchie,  M. A. Rohrdanz,  E. Rosta,  N. J. Russ,
 H. F. Schaefer III,  N. E. Schultz,  N. Shenvi,  A. C. Simmonett,  A. Sodt,
 D. Stuck,  K. S. Thanthiriwatte,  V. Vanovschi,  Tao Wang,  A. Warshel,
 C. F. Williams,  Q. Wu,  X. Xu,  W. Zhang

 Please cite Q-Chem as follows:
 Y. Shao et al., Mol. Phys. 113, 184-215 (2015)
 DOI: 10.1080/00268976.2014.952696

 Q-Chem 5.2.0 for Intel X86 EM64T Linux

 Parts of Q-Chem use Armadillo 8.300.2 (Tropical Shenanigans).
 http://arma.sourceforge.net/

 Q-Chem begins on Wed Jun 12 18:30:43 2019

n-62-24-2
Host: 0

     Scratch files written to /work1/malop/qc_8407565.hnode2/qchem7692//
NAlpha2: 60
NElect   58
Mult     3

Checking the input file for inconsistencies... 	...done.

--------------------------------------------------------------
User input:
--------------------------------------------------------------

$molecule
0 3
C        -0.0042112405   -1.7549930536    0.0000000000
H        -2.0949460216   -1.4184138214    0.0000000000
H        -0.1300971688   -2.8358204634    0.0000000000
H         0.0374086733    2.0243048927    0.0000000000
C        -1.2210197500    0.4010705948    0.0000000000
O        -2.2535781024    1.0567627444    0.0000000000
C         1.2399442445    0.2839850904    0.0000000000
O         2.3361887279    1.0691923037    0.0000000000
N         0.0349480223    1.0125648826    0.0000000000
N        -1.1853832587   -0.9770870742    0.0000000000
C         1.2251302704   -1.1165150648    0.0000000000
H         2.1596039787   -1.6767971209    0.0000000000
$end

$rem
   JOB_TYPE  =  SP
   BASIS  = general
   print_general_basis = true
   METHOD  =  EOM-CCSD
   SCF_GUESS read
   mom_start = 1
   CVS_IP_STATES = [4,0]
   !eom_davidson_convergence = 4
   cvs_eom_shift = 19500
   n_frozen_core = 2
   cc_trans_prop = true
   cc_memory = 40000
   cc_do_dyson = true
   MOLDEN_FORMAT = TRUE
$end

$basis
H    0
6-311(2+,+)G**
****
O    0
S    1    1.000000
   8.58850000E+03    1.89515000E-03
S    1    1.000000
   1.29723000E+03    1.43859000E-02
S    1    1.000000
   2.99296000E+02    7.07320000E-02
S    1    1.000000
   8.73771000E+01    2.40001000E-01
S    1    1.000000
   2.56789000E+01    5.94797000E-01
S    1    1.000000
   3.74004000E+00    2.80802000E-01
SP   3    1.000000
   4.21175000E+01    1.13889000E-01   3.65114000E-02
   9.62837000E+00    9.20811000E-01   2.37153000E-01
   2.85332000E+00   -3.27447000E-03   8.19702000E-01
SP   1    1.000000
   9.05661000E-01    1.00000000E+00   1.00000000E+00
SP   1    1.000000
   2.55611000E-01    1.00000000E+00   1.00000000E+00
SP   1    1.000000
   8.45000000E-02    1.00000000E+00   1.00000000E+00
SP   1    1.000000
   2.54518072E-02    1.00000000E+00   1.00000000E+00
D    1    1.000000
   1.29200000E+00    1.00000000E+00
****
N    0
S    1    1.000000
   6.29348000E+03    1.96979000E-03
S    1    1.000000
   9.49044000E+02    1.49613000E-02
S    1    1.000000
   2.18776000E+02    7.35006000E-02
S    1    1.000000
   6.36916000E+01    2.48937000E-01
S    1    1.000000
   1.88282000E+01    6.02460000E-01
S    1    1.000000
   2.72023000E+00    2.56202000E-01
SP   3    1.000000
   3.06331000E+01    1.11906000E-01   3.83119000E-02
   7.02614000E+00    9.21666000E-01   2.37403000E-01
   2.11205000E+00   -2.56919000E-03   8.17592000E-01
SP   1    1.000000
   6.84009000E-01    1.00000000E+00   1.00000000E+00
SP   1    1.000000
   2.00878000E-01    1.00000000E+00   1.00000000E+00
SP   1    1.000000
   6.39000000E-02    1.00000000E+00   1.00000000E+00
SP   1    1.000000
   1.92469880E-02    1.00000000E+00   1.00000000E+00
D    1    1.000000
   9.13000000E-01    1.00000000E+00
****
C    0
S    1    1.000000
   4.56324000E+03    1.96665000E-03
S    1    1.000000
   6.82024000E+02    1.52306000E-02
S    1    1.000000
   1.54973000E+02    7.61269000E-02
S    1    1.000000
   4.44553000E+01    2.60801000E-01
S    1    1.000000
   1.30290000E+01    6.16462000E-01
S    1    1.000000
   1.82773000E+00    2.21006000E-01
SP   3    1.000000
   2.09642000E+01    1.14660000E-01   4.02487000E-02
   4.80331000E+00    9.19999000E-01   2.37594000E-01
   1.45933000E+00   -3.03068000E-03   8.15854000E-01
SP   1    1.000000
   4.83456000E-01    1.00000000E+00   1.00000000E+00
SP   1    1.000000
   1.45585000E-01    1.00000000E+00   1.00000000E+00
SP   1    1.000000
   4.38000000E-02    1.00000000E+00   1.00000000E+00
SP   1    1.000000
   1.31927711E-02    1.00000000E+00   1.00000000E+00
D    1    1.000000
   6.26000000E-01    1.00000000E+00
****
$end

$occupied
1:30
1:26 28 29
$end

--------------------------------------------------------------

             Standard Nuclear Orientation (Angstroms)
    I     Atom           X                Y                Z
 ----------------------------------------------------------------
    1      C      -0.0075418336    -1.7589576307     0.0000000000
    2      H      -2.0976985029    -1.4188067789    -0.0000000000
    3      H      -0.1352742186    -2.8395683814    -0.0000000000
    4      H       0.0405351136     2.0202636900     0.0000000000
    5      C      -1.2206648390     0.3991818408    -0.0000000000
    6      O      -2.2521014059     1.0566372040    -0.0000000000
    7      C       1.2400955179     0.2778918438     0.0000000000
    8      O       2.3376799618     1.0612249299     0.0000000000
    9      N       0.0363458646     1.0085293608     0.0000000000
   10      N      -1.1873830418    -0.9790347032    -0.0000000000
   11      C       1.2228887503    -1.1225809570     0.0000000000
   12      H       2.1564038285    -1.6844587841     0.0000000000
 ----------------------------------------------------------------

   21    -412.3568635933      6.92e-09  Convergence criterion met
 Total energy in the final basis set =     -412.3568635933
 CCSD total energy          = -413.76091275
        Solving for CVS-EOMIP-CCSD A' transitions.
 EOMIP transition 1/A'
 Total energy = -393.95453652 a.u.  Excitation energy = 538.9589 eV.
 EOMIP transition 2/A'
 Total energy = -393.89250289 a.u.  Excitation energy = 540.6469 eV.
 EOMIP transition 3/A'
 Total energy = -393.66518427 a.u.  Excitation energy = 546.8326 eV.
 EOMIP transition 4/A'
 Total energy = -393.48162860 a.u.  Excitation energy = 551.8274 eV.
 Reference -- EOM-IP-CCSD state  1/A'   transition
 Reference -- EOM-IP-CCSD state  2/A'   transition
 Reference -- EOM-IP-CCSD state  3/A'   transition
 Reference -- EOM-IP-CCSD state  4/A'   transition

             Orbital Energies (a.u.) and Symmetries
 --------------------------------------------------------------

 Alpha MOs, Unrestricted
 -- Occupied --
-20.805 -20.606 -15.741 -15.717 -11.525 -11.492 -11.441 -11.345
  1 A'    2 A'    3 A'    4 A'    5 A'    6 A'    7 A'    8 A'
 -1.597  -1.492  -1.382  -1.334  -1.181  -1.026  -0.997  -0.895
  9 A'   10 A'   11 A'   12 A'   13 A'   14 A'   15 A'   16 A'
 -0.865  -0.828  -0.790  -0.777  -0.772  -0.716  -0.705  -0.696
 17 A'   18 A'   19 A'   20 A'    1 A"   21 A'    2 A"   22 A'
 -0.667  -0.576  -0.561  -0.534  -0.449  -0.104
 23 A'    3 A"    4 A"   24 A'    5 A"   25 A'

 Beta MOs, Unrestricted
 -- Occupied --
-20.763 -20.606 -15.739 -15.717 -11.527 -11.492 -11.440 -11.344
  1 A'    2 A'    3 A'    4 A'    5 A'    6 A'    7 A'    8 A'
 -1.501  -1.463  -1.369  -1.321  -1.172  -1.015  -0.978  -0.882
  9 A'   10 A'   11 A'   12 A'   13 A'   14 A'   15 A'   16 A'
 -0.835  -0.796  -0.786  -0.749  -0.715  -0.692  -0.684  -0.671
 17 A'   18 A'   19 A'    1 A"   20 A'   21 A'    2 A"   22 A'
 -0.575  -0.551  -0.533  -0.447
  3 A"    4 A"   23 A'    5 A"

          Ground-State Mulliken Net Atomic Charges

     Atom                 Charge (a.u.)    Spin (a.u.)
  --------------------------------------------------------
      1 C                     0.492095      -0.428839
      2 H                     0.156170       0.264258
      3 H                    -0.074740       0.375500
      4 H                     0.365274       0.031465
      5 C                     0.013707       0.210065
      6 O                     0.126746      -0.156329
      7 C                    -0.200216      -0.057216
      8 O                     0.421206       1.119191
      9 N                    -0.572653       0.055398
     10 N                    -0.180614      -0.155241
     11 C                    -0.782690       0.657939
     12 H                     0.235714       0.083808
  --------------------------------------------------------
  Sum of atomic charges =    -0.000000

                    Cartesian Multipole Moments
 -----------------------------------------------------------------
    Charge (ESU x 10^10)
                -0.0000
    Dipole Moment (Debye)
         X       4.6168      Y       7.5058      Z      -0.0000
       Tot       8.8120
    Quadrupole Moments (Debye-Ang)
        XX     -66.9844     XY      -0.2234     YY     -82.9671
        XZ       0.0000     YZ       0.0000     ZZ     -68.7527

 Total job time:  24567.87s(wall), 23398.64s(cpu)
        *  Thank you very much for using Q-Chem.  Have a nice day.  *
