 Q-Chem 5.2 (devel), Q-Chem, Inc., Pleasanton, CA (2019)
 Q-Chem 5.2.0 for Intel X86 EM64T Linux

User input:
--------------------------------------------------------------
$comment
Uracil XPS C K-edge 6-311(2+,+)G** (ucC)
geometry optimizion: mp2/cc-pvtz
$end

$molecule
0 1
C        0.052842   -1.701332    0.000000
H       -2.016793   -1.512231    0.000000
H       -0.025494   -2.778299    0.000000
H       -0.023568    1.988544    0.000000
C       -1.232948    0.358893    0.000000
O       -2.294123    0.950188    0.000000
C        1.274970    0.391620    0.000000
O        2.275873    1.086244    0.000000
N        0.000000    0.978006    0.000000
N       -1.137535   -1.023018    0.000000
C        1.239239   -1.061325    0.000000
H        2.169983   -1.601520    0.000000
$end

$rem
   JOB_TYPE  =  SP
   BASIS  = general
   print_general_basis = true
   METHOD  =  EOM-CCSD
   CVS_IP_STATES = [12,4]
   EE_STATES = [3,3]
   eom_davidson_convergence = 4
   cvs_eom_shift = 10500
   n_frozen_core = fc
   cc_trans_prop = true
   cc_memory = 40000
   cc_do_dyson = true
   MOLDEN_FORMAT = TRUE
$end

$basis
H    0
6-311(2+,+)G**
****
O    0
S    1    1.000000
   8.58850000E+03    1.89515000E-03
S    1    1.000000
   1.29723000E+03    1.43859000E-02
S    1    1.000000
   2.99296000E+02    7.07320000E-02
S    1    1.000000
   8.73771000E+01    2.40001000E-01
S    1    1.000000
   2.56789000E+01    5.94797000E-01
S    1    1.000000
   3.74004000E+00    2.80802000E-01
SP   3    1.000000
   4.21175000E+01    1.13889000E-01   3.65114000E-02
   9.62837000E+00    9.20811000E-01   2.37153000E-01
   2.85332000E+00   -3.27447000E-03   8.19702000E-01
SP   1    1.000000
   9.05661000E-01    1.00000000E+00   1.00000000E+00
SP   1    1.000000
   2.55611000E-01    1.00000000E+00   1.00000000E+00
SP   1    1.000000
   8.45000000E-02    1.00000000E+00   1.00000000E+00
SP   1    1.000000
   2.54518072E-02    1.00000000E+00   1.00000000E+00
D    1    1.000000
   1.29200000E+00    1.00000000E+00
****
N    0
S    1    1.000000
   6.29348000E+03    1.96979000E-03
S    1    1.000000
   9.49044000E+02    1.49613000E-02
S    1    1.000000
   2.18776000E+02    7.35006000E-02
S    1    1.000000
   6.36916000E+01    2.48937000E-01
S    1    1.000000
   1.88282000E+01    6.02460000E-01
S    1    1.000000
   2.72023000E+00    2.56202000E-01
SP   3    1.000000
   3.06331000E+01    1.11906000E-01   3.83119000E-02
   7.02614000E+00    9.21666000E-01   2.37403000E-01
   2.11205000E+00   -2.56919000E-03   8.17592000E-01
SP   1    1.000000
   6.84009000E-01    1.00000000E+00   1.00000000E+00
SP   1    1.000000
   2.00878000E-01    1.00000000E+00   1.00000000E+00
SP   1    1.000000
   6.39000000E-02    1.00000000E+00   1.00000000E+00
SP   1    1.000000
   1.92469880E-02    1.00000000E+00   1.00000000E+00
D    1    1.000000
   9.13000000E-01    1.00000000E+00
****
C    0
S    1    1.000000
   4.56324000E+03    1.96665000E-03
S    1    1.000000
   6.82024000E+02    1.52306000E-02
S    1    1.000000
   1.54973000E+02    7.61269000E-02
S    1    1.000000
   4.44553000E+01    2.60801000E-01
S    1    1.000000
   1.30290000E+01    6.16462000E-01
S    1    1.000000
   1.82773000E+00    2.21006000E-01
SP   3    1.000000
   2.09642000E+01    1.14660000E-01   4.02487000E-02
   4.80331000E+00    9.19999000E-01   2.37594000E-01
   1.45933000E+00   -3.03068000E-03   8.15854000E-01
SP   1    1.000000
   4.83456000E-01    1.00000000E+00   1.00000000E+00
SP   1    1.000000
   1.45585000E-01    1.00000000E+00   1.00000000E+00
SP   1    1.000000
   4.38000000E-02    1.00000000E+00   1.00000000E+00
SP   1    1.000000
   1.31927711E-02    1.00000000E+00   1.00000000E+00
D    1    1.000000
   6.26000000E-01    1.00000000E+00
****
$end
--------------------------------------------------------------

             Standard Nuclear Orientation (Angstroms)
    I     Atom           X                Y                Z
 ----------------------------------------------------------------
    1      C      -0.0071423615    -1.7021374661    -0.0000000000
    2      H      -2.0688284730    -1.4402241233     0.0000000000
    3      H      -0.1233798667    -2.7756752113     0.0000000000
    4      H       0.0465189185     1.9881394681    -0.0000000000
    5      C      -1.2195356258     0.4021166886     0.0000000000
    6      O      -2.2592155329     1.0304381418     0.0000000000
    7      C       1.2879780632     0.3464493659    -0.0000000000
    8      O       2.3127366072     1.0053721559    -0.0000000000
    9      N       0.0344629504     0.9773985746    -0.0000000000
   10      N      -1.1728776526    -0.9822982369     0.0000000000
   11      C       1.2010703878    -1.1043341925    -0.0000000000
   12      H       2.1122009607    -1.6769912546    -0.0000000000
 ----------------------------------------------------------------

   20    -412.5803335256      5.20e-09  Convergence criterion met
 Total energy in the final basis set =     -412.5803335256
 CCSD total energy          = -413.88163494
 EOMEE transition 1/A'
 Total energy = -413.67344355 a.u.  Excitation energy = 5.6652 eV.
 EOMEE transition 2/A'
 Total energy = -413.63450615 a.u.  Excitation energy = 6.7247 eV.
 EOMEE transition 3/A'
 Total energy = -413.62327335 a.u.  Excitation energy = 7.0304 eV.
 EOMEE transition 1/A"
 Total energy = -413.69235089 a.u.  Excitation energy = 5.1507 eV.
 EOMEE transition 2/A"
 Total energy = -413.66017514 a.u.  Excitation energy = 6.0262 eV.
 EOMEE transition 3/A"
 Total energy = -413.64228406 a.u.  Excitation energy = 6.5131 eV.
        Solving for CVS-EOMIP-CCSD A' transitions.
 EOMIP transition 1/A'
 Total energy = -403.16358516 a.u.  Excitation energy = 291.6530 eV.
 EOMIP transition 2/A'
 Total energy = -403.08505927 a.u.  Excitation energy = 293.7898 eV.
 EOMIP transition 3/A'
 Total energy = -403.02631144 a.u.  Excitation energy = 295.3884 eV.
 EOMIP transition 4/A'
 Total energy = -402.98704488 a.u.  Excitation energy = 296.4569 eV.
 EOMIP transition 5/A'
 Total energy = -402.60227582 a.u.  Excitation energy = 306.9270 eV.
 EOMIP transition 6/A'
 Total energy = -402.58059491 a.u.  Excitation energy = 307.5169 eV.
 EOMIP transition 7/A'
 Total energy = -402.55781951 a.u.  Excitation energy = 308.1367 eV.
 EOMIP transition 8/A'
 Total energy = -402.55672432 a.u.  Excitation energy = 308.1665 eV.
 EOMIP transition 9/A'
 Total energy = -402.55465101 a.u.  Excitation energy = 308.2229 eV.
 EOMIP transition 10/A'
 Total energy = -402.54372366 a.u.  Excitation energy = 308.5203 eV.
 EOMIP transition 11/A'
 Total energy = -402.53771727 a.u.  Excitation energy = 308.6837 eV.
 EOMIP transition 12/A'
 Total energy = -402.51686376 a.u.  Excitation energy = 309.2512 eV.
        Solving for CVS-EOMIP-CCSD A" transitions.
 EOMIP transition 1/A"
 Total energy = -402.55604481 a.u.  Excitation energy = 308.1850 eV.
 EOMIP transition 2/A"
 Total energy = -402.55079112 a.u.  Excitation energy = 308.3279 eV.
 EOMIP transition 3/A"
 Total energy = -402.49420391 a.u.  Excitation energy = 309.8678 eV.
 EOMIP transition 4/A"
 Total energy = -402.49103999 a.u.  Excitation energy = 309.9539 eV.
 Reference -- EOM-IP-CCSD state  1/A'   transition
 Reference -- EOM-IP-CCSD state  2/A'   transition
 Reference -- EOM-IP-CCSD state  3/A'   transition
 Reference -- EOM-IP-CCSD state  4/A'   transition
 Reference -- EOM-IP-CCSD state  5/A'   transition
 Reference -- EOM-IP-CCSD state  6/A'   transition
 Reference -- EOM-IP-CCSD state  7/A'   transition
 Reference -- EOM-IP-CCSD state  8/A'   transition
 Reference -- EOM-IP-CCSD state  9/A'   transition
 Reference -- EOM-IP-CCSD state  10/A'   transition
 Reference -- EOM-IP-CCSD state  11/A'   transition
 Reference -- EOM-IP-CCSD state  12/A'   transition
 Reference -- EOM-IP-CCSD state  1/A"   transition
 Reference -- EOM-IP-CCSD state  2/A"   transition
 Reference -- EOM-IP-CCSD state  3/A"   transition
 Reference -- EOM-IP-CCSD state  4/A"   transition
 EOM-EE-CCSD state 1/A" -- EOM-IP-CCSD state 9/A' transition
 EOM-EE-CCSD state 1/A" -- EOM-IP-CCSD state 10/A' transition
 EOM-EE-CCSD state 1/A" -- EOM-IP-CCSD state 11/A' transition
 EOM-EE-CCSD state 1/A" -- EOM-IP-CCSD state 12/A' transition
 EOM-EE-CCSD state 1/A" -- EOM-IP-CCSD state 1/A" transition
 EOM-EE-CCSD state 1/A" -- EOM-IP-CCSD state 2/A" transition
 EOM-EE-CCSD state 1/A" -- EOM-IP-CCSD state 3/A" transition
 EOM-EE-CCSD state 1/A" -- EOM-IP-CCSD state 4/A" transition
 EOM-EE-CCSD state 2/A" -- EOM-IP-CCSD state 1/A' transition
 EOM-EE-CCSD state 2/A" -- EOM-IP-CCSD state 2/A' transition
 EOM-EE-CCSD state 2/A" -- EOM-IP-CCSD state 3/A' transition
 EOM-EE-CCSD state 2/A" -- EOM-IP-CCSD state 4/A' transition
 EOM-EE-CCSD state 2/A" -- EOM-IP-CCSD state 5/A' transition
 EOM-EE-CCSD state 2/A" -- EOM-IP-CCSD state 6/A' transition
 EOM-EE-CCSD state 2/A" -- EOM-IP-CCSD state 7/A' transition
 EOM-EE-CCSD state 2/A" -- EOM-IP-CCSD state 8/A' transition
 EOM-EE-CCSD state 2/A" -- EOM-IP-CCSD state 9/A' transition
 EOM-EE-CCSD state 2/A" -- EOM-IP-CCSD state 10/A' transition
 EOM-EE-CCSD state 2/A" -- EOM-IP-CCSD state 11/A' transition
 EOM-EE-CCSD state 2/A" -- EOM-IP-CCSD state 12/A' transition
 EOM-EE-CCSD state 2/A" -- EOM-IP-CCSD state 1/A" transition
 EOM-EE-CCSD state 2/A" -- EOM-IP-CCSD state 2/A" transition
 EOM-EE-CCSD state 2/A" -- EOM-IP-CCSD state 3/A" transition
 EOM-EE-CCSD state 2/A" -- EOM-IP-CCSD state 4/A" transition
 EOM-EE-CCSD state 3/A" -- EOM-IP-CCSD state 1/A' transition
 EOM-EE-CCSD state 3/A" -- EOM-IP-CCSD state 2/A' transition
 EOM-EE-CCSD state 3/A" -- EOM-IP-CCSD state 3/A' transition
 EOM-EE-CCSD state 3/A" -- EOM-IP-CCSD state 4/A' transition
 EOM-EE-CCSD state 3/A" -- EOM-IP-CCSD state 5/A' transition
 EOM-EE-CCSD state 3/A" -- EOM-IP-CCSD state 6/A' transition
 EOM-EE-CCSD state 3/A" -- EOM-IP-CCSD state 7/A' transition
 EOM-EE-CCSD state 3/A" -- EOM-IP-CCSD state 8/A' transition
 EOM-EE-CCSD state 3/A" -- EOM-IP-CCSD state 9/A' transition
 EOM-EE-CCSD state 3/A" -- EOM-IP-CCSD state 10/A' transition
 EOM-EE-CCSD state 3/A" -- EOM-IP-CCSD state 11/A' transition
 EOM-EE-CCSD state 3/A" -- EOM-IP-CCSD state 12/A' transition
 EOM-EE-CCSD state 3/A" -- EOM-IP-CCSD state 1/A" transition
 EOM-EE-CCSD state 3/A" -- EOM-IP-CCSD state 2/A" transition
 EOM-EE-CCSD state 3/A" -- EOM-IP-CCSD state 3/A" transition
 EOM-EE-CCSD state 3/A" -- EOM-IP-CCSD state 4/A" transition

             Orbital Energies (a.u.) and Symmetries
 --------------------------------------------------------------

 Alpha MOs, Restricted
 -- Occupied --
-20.550 -20.545 -15.649 -15.632 -11.427 -11.388 -11.346 -11.261
  1 A'    2 A'    3 A'    4 A'    5 A'    6 A'    7 A'    8 A'
 -1.442  -1.404  -1.318  -1.250  -1.093  -0.938  -0.906  -0.812
  9 A'   10 A'   11 A'   12 A'   13 A'   14 A'   15 A'   16 A'
 -0.770  -0.718  -0.681  -0.671  -0.657  -0.619  -0.605  -0.573
 17 A'   18 A'   19 A'    1 A"   20 A'   21 A'   22 A'    2 A"
 -0.528  -0.487  -0.452  -0.438  -0.371
  3 A"   23 A'   24 A'    4 A"    5 A"

 Beta MOs, Restricted
 -- Occupied --
-20.550 -20.545 -15.649 -15.632 -11.427 -11.388 -11.346 -11.261
  1 A'    2 A'    3 A'    4 A'    5 A'    6 A'    7 A'    8 A'
 -1.442  -1.404  -1.318  -1.250  -1.093  -0.938  -0.906  -0.812
  9 A'   10 A'   11 A'   12 A'   13 A'   14 A'   15 A'   16 A'
 -0.770  -0.718  -0.681  -0.671  -0.657  -0.619  -0.605  -0.573
 17 A'   18 A'   19 A'    1 A"   20 A'   21 A'   22 A'    2 A"
 -0.528  -0.487  -0.452  -0.438  -0.371
  3 A"   23 A'   24 A'    4 A"    5 A"

          Ground-State Mulliken Net Atomic Charges

     Atom                 Charge (a.u.)
  ----------------------------------------
      1 C                     0.041345
      2 H                     0.361959
      3 H                     0.163670
      4 H                     0.394985
      5 C                     0.245726
      6 O                    -0.078193
      7 C                     0.021288
      8 O                    -0.118248
      9 N                    -0.604359
     10 N                    -0.410869
     11 C                    -0.261285
     12 H                     0.243982
  ----------------------------------------
  Sum of atomic charges =     0.000000

                    Cartesian Multipole Moments
 -----------------------------------------------------------------
    Charge (ESU x 10^10)
                 0.0000
    Dipole Moment (Debye)
         X      -1.3839      Y      -4.9543      Z      -0.0000
       Tot       5.1439
    Quadrupole Moments (Debye-Ang)
        XX     -60.6807     XY       2.5027     YY     -38.3445
        XZ       0.0000     YZ      -0.0000     ZZ     -46.9509

 Total job time:  4633.65s(wall), 15030.41s(cpu)
        *  Thank you very much for using Q-Chem.  Have a nice day.  *
