 Q-Chem 5.2 (devel), Q-Chem, Inc., Pleasanton, CA (2019)
 Q-Chem 5.2.0 for Intel X86 EM64T Linux

User input:
--------------------------------------------------------------
$comment
NEXAFS Adenine/ 6-311(2+,+)G** (ucC)
optimization: MP2/cc-pVTZ
$end

$molecule
0 1
N      1.663948   -1.127531    0.000000
N     -0.643862   -1.804088    0.000000
N     -0.636159    1.773662    0.000000
N     -2.146840    0.119893    0.000000
N      2.353671    1.084678    0.000000
C      0.668787   -2.022720    0.000000
C     -0.919981   -0.499328    0.000000
C      0.000000    0.546991    0.000000
C      1.356490    0.175959    0.000000
C     -1.907009    1.474843    0.000000
H     -3.039931   -0.341646    0.000000
H     -2.712908    2.189994    0.000000
H      0.978346   -3.060960    0.000000
H      2.144452    2.065199    0.000000
H      3.305020    0.766647    0.000000
$end

$rem
    print_general_basis = true
    jobtype = sp
    method = eom-ccsd
    cvs_ip_states    [5,0]
    basis = general
    n_frozen_core = 5
    cc_trans_prop = true
    cc_do_dyson = true
    print_general_basis = true
    cc_memory = 100000
    molden_format = true
    print_general_basis = true
$end

$basis
H    0
6-311(2+,+)G**
****
O    0
6-311(2+,+)G**
****
C    0
6-311(2+,+)G**
****
N    0
S    1    1.000000
   6.29348000E+03    1.96979000E-03
S    1    1.000000
   9.49044000E+02    1.49613000E-02
S    1    1.000000
   2.18776000E+02    7.35006000E-02
S    1    1.000000
   6.36916000E+01    2.48937000E-01
S    1    1.000000
   1.88282000E+01    6.02460000E-01
S    1    1.000000
   2.72023000E+00    2.56202000E-01
SP   3    1.000000
   3.06331000E+01    1.11906000E-01   3.83119000E-02
   7.02614000E+00    9.21666000E-01   2.37403000E-01
   2.11205000E+00   -2.56919000E-03   8.17592000E-01
SP   1    1.000000
   6.84009000E-01    1.00000000E+00   1.00000000E+00
SP   1    1.000000
   2.00878000E-01    1.00000000E+00   1.00000000E+00
SP   1    1.000000
   6.39000000E-02    1.00000000E+00   1.00000000E+00
SP   1    1.000000
   1.92469880E-02    1.00000000E+00   1.00000000E+00
D    1    1.000000
   9.13000000E-01    1.00000000E+00
****
$end

--------------------------------------------------------------

             Standard Nuclear Orientation (Angstroms)
    I     Atom           X                Y                Z
 ----------------------------------------------------------------
    1      N       1.9401893320     0.5250849361     0.0000000000
    2      N      -0.0221326925     1.9154117475     0.0000000000
    3      N      -1.1784087390    -1.4703496296    -0.0000000000
    4      N      -2.0691252255     0.5848226575     0.0000000000
    5      N       1.8729602234    -1.7911764315    -0.0000000000
    6      C       1.2902617955     1.6952571282     0.0000000000
    7      C      -0.7075769660     0.7713809316     0.0000000000
    8      C      -0.1778931772    -0.5172553918    -0.0000000000
    9      C       1.2255227416    -0.6075528111    -0.0000000000
   10      C      -2.2829904496    -0.7744676268    -0.0000000000
   11      H      -2.7635636871     1.3117236177     0.0000000000
   12      H      -3.2776614287    -1.1886460838    -0.0000000000
   13      H       1.9206502371     2.5763811176     0.0000000000
   14      H       1.3562285392    -2.6503518432    -0.0000000000
   15      H       2.8760223840    -1.7998331492    -0.0000000000
 ----------------------------------------------------------------

   21    -464.6368095098      7.61e-09  Convergence criterion met
 Total energy in the final basis set =     -464.6368095098
 CCSD total energy          = -466.29505219
        Solving for CVS-EOMIP-CCSD A' transitions.
 EOMIP transition 1/A'
 Total energy = -451.39787744 a.u.  Excitation energy = 405.3727 eV.
 EOMIP transition 2/A'
 Total energy = -451.39125550 a.u.  Excitation energy = 405.5529 eV.
 EOMIP transition 3/A'
 Total energy = -451.37875509 a.u.  Excitation energy = 405.8931 eV.
 EOMIP transition 4/A'
 Total energy = -451.34892642 a.u.  Excitation energy = 406.7048 eV.
 EOMIP transition 5/A'
 Total energy = -451.31191281 a.u.  Excitation energy = 407.7120 eV.
 Reference -- EOM-IP-CCSD state  1/A'   transition
 Reference -- EOM-IP-CCSD state  2/A'   transition
 Reference -- EOM-IP-CCSD state  3/A'   transition
 Reference -- EOM-IP-CCSD state  4/A'   transition
 Reference -- EOM-IP-CCSD state  5/A'   transition

             Orbital Energies (a.u.) and Symmetries
 --------------------------------------------------------------

 Alpha MOs, Restricted
 -- Occupied --
-15.634 -15.587 -15.572 -15.559 -15.552 -11.342 -11.327 -11.321
  1 A'    2 A'    3 A'    4 A'    5 A'    6 A'    7 A'    8 A'
-11.313 -11.256  -1.374  -1.307  -1.253  -1.192  -1.157  -1.040
  9 A'   10 A'   11 A'   12 A'   13 A'   14 A'   15 A'   16 A'
 -0.901  -0.882  -0.849  -0.785  -0.745  -0.703  -0.683  -0.641
 17 A'   18 A'   19 A'   20 A'   21 A'   22 A'   23 A'    1 A"
 -0.639  -0.619  -0.597  -0.561  -0.500  -0.497  -0.452  -0.426
 24 A'   25 A'   26 A'    2 A"    3 A"   27 A'   28 A'    4 A"
 -0.411  -0.375  -0.312
 29 A'    5 A"    6 A"

 Beta MOs, Restricted
 -- Occupied --
-15.634 -15.587 -15.572 -15.559 -15.552 -11.342 -11.327 -11.321
  1 A'    2 A'    3 A'    4 A'    5 A'    6 A'    7 A'    8 A'
-11.313 -11.256  -1.374  -1.307  -1.253  -1.192  -1.157  -1.040
  9 A'   10 A'   11 A'   12 A'   13 A'   14 A'   15 A'   16 A'
 -0.901  -0.882  -0.849  -0.785  -0.745  -0.703  -0.683  -0.641
 17 A'   18 A'   19 A'   20 A'   21 A'   22 A'   23 A'    1 A"
 -0.639  -0.619  -0.597  -0.561  -0.500  -0.497  -0.452  -0.426
 24 A'   25 A'   26 A'    2 A"    3 A"   27 A'   28 A'    4 A"
 -0.411  -0.375  -0.312
 29 A'    5 A"    6 A"

          Ground-State Mulliken Net Atomic Charges

     Atom                 Charge (a.u.)
  ----------------------------------------
      1 N                    -0.125920
      2 N                    -0.116658
      3 N                    -0.156297
      4 N                    -0.162681
      5 N                    -0.249299
      6 C                    -0.105570
      7 C                    -0.417024
      8 C                    -0.103109
      9 C                    -0.227672
     10 C                     0.109942
     11 H                     0.342732
     12 H                     0.285186
     13 H                     0.295860
     14 H                     0.275837
     15 H                     0.354672
  ----------------------------------------
  Sum of atomic charges =     0.000000

                    Cartesian Multipole Moments
 -----------------------------------------------------------------
    Charge (ESU x 10^10)
                 0.0000
    Dipole Moment (Debye)
         X      -2.3019      Y      -1.0494      Z       0.0000
       Tot       2.5298
    Quadrupole Moments (Debye-Ang)
        XX     -43.7854     XY      -6.4414     YY     -57.8867
        XZ       0.0000     YZ      -0.0000     ZZ     -60.5674

 Total job time:  3615.32s(wall), 13408.82s(cpu)
        *  Thank you very much for using Q-Chem.  Have a nice day.  *
