 Q-Chem 5.2 (devel), Q-Chem, Inc., Pleasanton, CA (2019)
 Q-Chem 5.2.0 for Mac (Intel) OS X

User input:
--------------------------------------------------------------
$comment
I think this is equilibrium geometry. I symmetrized it with IQmol
$end

$molecule
0 1
N          0.00000        0.95064        0.03617
N          0.00000       -1.01646       -1.17678
C          0.00000        0.37240       -1.21738
C          0.00000       -1.73906       -0.01025
C          0.00000       -1.14569        1.19934
C          0.00000        0.31332        1.28805
O          0.00000        0.96679        2.30939
O          0.00000        0.99654       -2.25445
H          0.00000        1.96592        0.05068
H          0.00000       -1.47161       -2.07989
H          0.00000       -2.82299       -0.12835
H          0.00000       -1.71696        2.12384
$end

$rem
JOBTYPE SP
BASIS 6-31G*
METHOD EOM-CCSD
cvs_ip_states  [4,0]
cc_trans_prop  true
cc_do_dyson = true
!state_analysis true
!molden_format  true
!nto_pairs      3
!pop_mulliken   true
$end
--------------------------------------------------------------

             Standard Nuclear Orientation (Angstroms)
    I     Atom           X                Y                Z
 ----------------------------------------------------------------
    1      N       0.0354846971    -0.9850555213    -0.0000000000
    2      N      -1.1754105895     0.9833099726    -0.0000000000
    3      C      -1.2174608195    -0.4055068756    -0.0000000000
    4      C      -0.0081266842     1.7046914842     0.0000000000
    5      C       1.2008430574     1.1100587500     0.0000000000
    6      C       1.2880295062    -0.3490430859     0.0000000000
    7      O       2.3086865939    -1.0035792161     0.0000000000
    8      O      -2.2551819831    -1.0285636235    -0.0000000000
    9      H       0.0489345305    -2.0003501192    -0.0000000000
   10      H      -2.0780448281     1.4394027548    -0.0000000000
   11      H      -0.1250947767     2.7887442137     0.0000000000
   12      H       2.1259390754     1.6803630727     0.0000000000
 ----------------------------------------------------------------

   16    -412.4671460101      4.03e-09  Convergence criterion met
 Total energy in the final basis set =     -412.4671460101
 CCSD total energy          = -413.65842885
        Solving for CVS-EOMIP-CCSD A' transitions.
 EOMIP transition 1/A'
 Total energy = -402.89318479 a.u.  Excitation energy = 292.9372 eV.
 EOMIP transition 2/A'
 Total energy = -402.81524911 a.u.  Excitation energy = 295.0579 eV.
 EOMIP transition 3/A'
 Total energy = -402.75800703 a.u.  Excitation energy = 296.6156 eV.
 EOMIP transition 4/A'
 Total energy = -402.71864463 a.u.  Excitation energy = 297.6867 eV.
 Reference -- EOM-IP-CCSD state  1/A'   transition
 Reference -- EOM-IP-CCSD state  2/A'   transition
 Reference -- EOM-IP-CCSD state  3/A'   transition
 Reference -- EOM-IP-CCSD state  4/A'   transition

             Orbital Energies (a.u.) and Symmetries
 --------------------------------------------------------------

 Alpha MOs, Restricted
 -- Occupied --
-20.551 -20.546 -15.647 -15.628 -11.420 -11.381 -11.341 -11.255
  1 A'    2 A'    3 A'    4 A'    5 A'    6 A'    7 A'    8 A'
 -1.434  -1.398  -1.308  -1.241  -1.083  -0.926  -0.895  -0.801
  9 A'   10 A'   11 A'   12 A'   13 A'   14 A'   15 A'   16 A'
 -0.759  -0.709  -0.671  -0.662  -0.646  -0.610  -0.596  -0.565
 17 A'   18 A'   19 A'    1 A"   20 A'   21 A'   22 A'    2 A"
 -0.520  -0.477  -0.441  -0.429  -0.362
  3 A"   23 A'   24 A'    4 A"    5 A"

 Beta MOs, Restricted
 -- Occupied --
-20.551 -20.546 -15.647 -15.628 -11.420 -11.381 -11.341 -11.255
  1 A'    2 A'    3 A'    4 A'    5 A'    6 A'    7 A'    8 A'
 -1.434  -1.398  -1.308  -1.241  -1.083  -0.926  -0.895  -0.801
  9 A'   10 A'   11 A'   12 A'   13 A'   14 A'   15 A'   16 A'
 -0.759  -0.709  -0.671  -0.662  -0.646  -0.610  -0.596  -0.565
 17 A'   18 A'   19 A'    1 A"   20 A'   21 A'   22 A'    2 A"
 -0.520  -0.477  -0.441  -0.429  -0.362
  3 A"   23 A'   24 A'    4 A"    5 A"

          Ground-State Mulliken Net Atomic Charges

     Atom                 Charge (a.u.)
  ----------------------------------------
      1 N                    -0.929332
      2 N                    -0.866116
      3 C                     1.045193
      4 C                     0.175155
      5 C                    -0.409246
      6 C                     0.837648
      7 O                    -0.599190
      8 O                    -0.607855
      9 H                     0.429484
     10 H                     0.425929
     11 H                     0.251584
     12 H                     0.246746
  ----------------------------------------
  Sum of atomic charges =     0.000000

                    Cartesian Multipole Moments
 -----------------------------------------------------------------
    Charge (ESU x 10^10)
                 0.0000
    Dipole Moment (Debye)
         X      -1.3265      Y       4.6898      Z       0.0000
       Tot       4.8738
    Quadrupole Moments (Debye-Ang)
        XX     -58.6527     XY      -2.4894     YY     -37.4923
        XZ      -0.0000     YZ       0.0000     ZZ     -46.1292

 Total job time:  76.40s(wall), 120.35s(cpu)
        *  Thank you very much for using Q-Chem.  Have a nice day.  *
