 Q-Chem 5.2 (devel), Q-Chem, Inc., Pleasanton, CA (2019)
 Q-Chem 5.2.0 for Mac (Intel) OS X

User input:
--------------------------------------------------------------
$comment
I think this is equilibrium geometry. I symmetrized it with IQmol
$end

$molecule
0 1
N          0.00000        0.95064        0.03617
N          0.00000       -1.01646       -1.17678
C          0.00000        0.37240       -1.21738
C          0.00000       -1.73906       -0.01025
C          0.00000       -1.14569        1.19934
C          0.00000        0.31332        1.28805
O          0.00000        0.96679        2.30939
O          0.00000        0.99654       -2.25445
H          0.00000        1.96592        0.05068
H          0.00000       -1.47161       -2.07989
H          0.00000       -2.82299       -0.12835
H          0.00000       -1.71696        2.12384
$end

$rem
JOBTYPE SP
BASIS 6-31G*
METHOD HF
$end

--------------------------------------------------------------

    9    -412.4671452482      7.91e-06  Convergence criterion met
 Total energy in the final basis set =     -412.4671452482
 Total job time:  3.01s(wall), 3.00s(cpu)
        *  Thank you very much for using Q-Chem.  Have a nice day.  *

User input: 2 of 2

                  Welcome to Q-Chem
     A Quantum Leap Into The Future Of Chemistry

 Q-Chem 5.2 (devel), Q-Chem, Inc., Pleasanton, CA (2019)

 Yihan Shao,  Zhengting Gan,  E. Epifanovsky,  A. T. B. Gilbert,  M. Wormit,
 J. Kussmann,  A. W. Lange,  A. Behn,  Jia Deng,  Xintian Feng,  D. Ghosh,
 M. Goldey,  P. R. Horn,  L. D. Jacobson,  I. Kaliman,  T. Kus,  A. Landau,
 Jie Liu,  E. I. Proynov,  R. M. Richard,  R. P. Steele,  E. J. Sundstrom,
 H. L. Woodcock III,  P. M. Zimmerman,  D. Zuev,  B. Albrecht,  E. Alguire,
 S. A. Baeppler,  D. Barton,  Z. Benda,  Y. A. Bernard,  E. J. Berquist,
 K. B. Bravaya,  H. Burton,  D. Casanova,  Chun-Min Chang,  Yunqing Chen,
 A. Chien,  K. D. Closser,  M. P. Coons,  S. Coriani,  S. Dasgupta,
 A. L. Dempwolff,  M. Diedenhofen,  Hainam Do,  R. G. Edgar,  Po-Tung Fang,
 S. Faraji,  S. Fatehi,  Qingguo Feng,  K. D. Fenk,  J. Fosso-Tande,
 J. Gayvert,  Qinghui Ge,  A. Ghysels,  G. Gidofalvi,  J. Gomes,
 J. Gonthier,  A. Gunina,  D. Hait,  M. W. D. Hanson-Heine,
 P. H. P. Harbach,  A. W. Hauser,  M. F. Herbst,  J. E. Herr,
 E. G. Hohenstein,  Z. C. Holden,  Kerwin Hui,  B. C. Huynh,  T.-C. Jagau,
 Hyunjun Ji,  B. Kaduk,  K. Khistyaev,  Jaehoon Kim,  P. Klunzinger,  K. Koh,
 D. Kosenkov,  L. Koulias,  T. Kowalczyk,  C. M. Krauter,  A. Kunitsa,
 Ka Un Lao,  A. Laurent,  K. V. Lawler,  Joonho Lee,  D. Lefrancois,
 S. Lehtola,  D. S. Levine,  Yi-Pei Li,  You-Sheng Lin,  Fenglai Liu,
 E. Livshits,  A. Luenser,  P. Manohar,  E. Mansoor,  S. F. Manzer,
 Shan-Ping Mao,  Yuezhi Mao,  N. Mardirossian,  A. V. Marenich,
 T. Markovich,  L. A. Martinez-Martinez,  S. A. Maurer,  N. J. Mayhall,
 S. C. McKenzie,  J.-M. Mewes,  P. Morgante,  A. F. Morrison,
 J. W. Mullinax,  K. Nanda,  T. S. Nguyen-Beck,  R. Olivares-Amaya,
 J. A. Parkhill,  Zheng Pei,  T. M. Perrine,  F. Plasser,  P. Pokhilko,
 S. Prager,  A. Prociuk,  E. Ramos,  D. R. Rehn,  F. Rob,  M. Scheurer,
 M. Schneider,  N. Sergueev,  S. M. Sharada,  S. Sharma,  D. W. Small,
 T. Stauch,  T. Stein,  Yu-Chuan Su,  A. J. W. Thom,  A. Tkatchenko,
 T. Tsuchimochi,  N. M. Tubman,  L. Vogt,  M. L. Vidal,  O. Vydrov,
 M. A. Watson,  J. Wenzel,  M. de Wergifosse,  T. A. Wesolowski,  A. White,
 J. Witte,  A. Yamada,  Jun Yang,  K. Yao,  S. Yeganeh,  S. R. Yost,
 Zhi-Qiang You,  A. Zech,  Igor Ying Zhang,  Xing Zhang,  Yan Zhao,
 Ying Zhu,  B. R. Brooks,  G. K. L. Chan,  C. J. Cramer,  M. S. Gordon,
 W. J. Hehre,  A. Klamt,  M. W. Schmidt,  C. D. Sherrill,  D. G. Truhlar,
 A. Aspuru-Guzik,  R. Baer,  A. T. Bell,  N. A. Besley,  Jeng-Da Chai,
 A. E. DePrince, III,  R. A. DiStasio Jr.,  A. Dreuw,  B. D. Dunietz,
 T. R. Furlani,  Chao-Ping Hsu,  Yousung Jung,  Jing Kong,  D. S. Lambrecht,
 WanZhen Liang,  C. Ochsenfeld,  V. A. Rassolov,  L. V. Slipchenko,
 J. E. Subotnik,  T. Van Voorhis,  J. M. Herbert,  A. I. Krylov,
 P. M. W. Gill,  M. Head-Gordon

 Contributors to earlier versions of Q-Chem not listed above:
 R. D. Adamson,  B. Austin,  J. Baker,  G. J. O. Beran,  K. Brandhorst,
 S. T. Brown,  E. F. C. Byrd,  A. K. Chakraborty,  C.-L. Cheng,
 Siu Hung Chien,  D. M. Chipman,  D. L. Crittenden,  H. Dachsel,
 R. J. Doerksen,  A. D. Dutoi,  L. Fusti-Molnar,  W. A. Goddard III,
 A. Golubeva-Zadorozhnaya,  S. R. Gwaltney,  G. Hawkins,  A. Heyden,
 S. Hirata,  G. Kedziora,  F. J. Keil,  C. Kelley,  Jihan Kim,  R. A. King,
 R. Z. Khaliullin,  P. P. Korambath,  W. Kurlancheek,  A. M. Lee,  M. S. Lee,
 S. V. Levchenko,  Ching Yeh Lin,  D. Liotard,  R. C. Lochan,  I. Lotan,
 P. E. Maslen,  N. Nair,  D. P. O'Neill,  D. Neuhauser,  E. Neuscamman,
 C. M. Oana,  R. Olson,  B. Peters,  R. Peverati,  P. A. Pieniazek,
 Y. M. Rhee,  J. Ritchie,  M. A. Rohrdanz,  E. Rosta,  N. J. Russ,
 H. F. Schaefer III,  N. E. Schultz,  N. Shenvi,  A. C. Simmonett,  A. Sodt,
 D. Stuck,  K. S. Thanthiriwatte,  V. Vanovschi,  Tao Wang,  A. Warshel,
 C. F. Williams,  Q. Wu,  X. Xu,  W. Zhang

 Please cite Q-Chem as follows:
 Y. Shao et al., Mol. Phys. 113, 184-215 (2015)
 DOI: 10.1080/00268976.2014.952696

 Q-Chem 5.2.0 for Mac (Intel) OS X

 Parts of Q-Chem use Armadillo 8.300.2 (Tropical Shenanigans).
 http://arma.sourceforge.net/

 Q-Chem begins on Wed May 29 06:27:11 2019

Annas-MacBook-Pro-4.local
Host: 0

     Scratch files written to /scratch/qchem7725//
Processing $rem in /Users/annakrylov/.qchemrc:
	CC_MEMORY  8000
NAlpha2: 60
NElect   58
Mult     3
Core orbitals will be frozen

Checking the input file for inconsistencies... 	...done.

--------------------------------------------------------------
User input:
--------------------------------------------------------------

$molecule
0 3
N          0.00000        0.95064        0.03617
N          0.00000       -1.01646       -1.17678
C          0.00000        0.37240       -1.21738
C          0.00000       -1.73906       -0.01025
C          0.00000       -1.14569        1.19934
C          0.00000        0.31332        1.28805
O          0.00000        0.96679        2.30939
O          0.00000        0.99654       -2.25445
H          0.00000        1.96592        0.05068
H          0.00000       -1.47161       -2.07989
H          0.00000       -2.82299       -0.12835
H          0.00000       -1.71696        2.12384
$end

$rem
JOBTYPE SP
BASIS 6-31G*
SCF_GUESS read
METHOD EOM-CCSD
cvs_ip_states  [4,0]
cc_trans_prop  true
cc_do_dyson = true
!state_analysis true
!molden_format  true
!nto_pairs      3
!pop_mulliken   true
$end
--------------------------------------------------------------

             Standard Nuclear Orientation (Angstroms)
    I     Atom           X                Y                Z
 ----------------------------------------------------------------
    1      N       0.0354846971    -0.9850555213    -0.0000000000
    2      N      -1.1754105895     0.9833099726    -0.0000000000
    3      C      -1.2174608195    -0.4055068756    -0.0000000000
    4      C      -0.0081266842     1.7046914842     0.0000000000
    5      C       1.2008430574     1.1100587500     0.0000000000
    6      C       1.2880295062    -0.3490430859     0.0000000000
    7      O       2.3086865939    -1.0035792161     0.0000000000
    8      O      -2.2551819831    -1.0285636235    -0.0000000000
    9      H       0.0489345305    -2.0003501192    -0.0000000000
   10      H      -2.0780448281     1.4394027548    -0.0000000000
   11      H      -0.1250947767     2.7887442137     0.0000000000
   12      H       2.1259390754     1.6803630727     0.0000000000
 ----------------------------------------------------------------

   21    -412.3515257779      7.89e-09  Convergence criterion met
 Total energy in the final basis set =     -412.3515257779
 CCSD total energy          = -413.51443033
        Solving for CVS-EOMIP-CCSD A' transitions.
 EOMIP transition 1/A'
 Total energy = -402.70287562 a.u.  Excitation energy = 294.1974 eV.
 EOMIP transition 2/A'
 Total energy = -402.69242412 a.u.  Excitation energy = 294.4818 eV.
 EOMIP transition 3/A'
 Total energy = -402.62821794 a.u.  Excitation energy = 296.2289 eV.
 EOMIP transition 4/A'
 Total energy = -402.57879009 a.u.  Excitation energy = 297.5739 eV.
 Reference -- EOM-IP-CCSD state  1/A'   transition
 Reference -- EOM-IP-CCSD state  2/A'   transition
 Reference -- EOM-IP-CCSD state  3/A'   transition
 Reference -- EOM-IP-CCSD state  4/A'   transition

             Orbital Energies (a.u.) and Symmetries
 --------------------------------------------------------------

 Alpha MOs, Unrestricted
 -- Occupied --
-20.579 -20.549 -15.637 -15.616 -11.412 -11.371 -11.291 -11.283
  1 A'    2 A'    3 A'    4 A'    5 A'    6 A'    7 A'    8 A'
 -1.439  -1.419  -1.308  -1.237  -1.122  -0.935  -0.893  -0.806
  9 A'   10 A'   11 A'   12 A'   13 A'   14 A'   15 A'   16 A'
 -0.760  -0.696  -0.684  -0.684  -0.652  -0.622  -0.608  -0.602
 17 A'   18 A'    1 A"   19 A'   20 A'   21 A'    2 A"   22 A'
 -0.572  -0.484  -0.469  -0.458  -0.438  -0.249
  3 A"   23 A'    4 A"   24 A'    5 A"    6 A"

 Beta MOs, Unrestricted
 -- Occupied --
-20.563 -20.547 -15.631 -15.616 -11.413 -11.378 -11.272 -11.261
  1 A'    2 A'    3 A'    4 A'    5 A'    6 A'    7 A'    8 A'
 -1.426  -1.396  -1.286  -1.225  -1.044  -0.898  -0.886  -0.788
  9 A'   10 A'   11 A'   12 A'   13 A'   14 A'   15 A'   16 A'
 -0.750  -0.684  -0.669  -0.643  -0.640  -0.608  -0.592  -0.541
 17 A'   18 A'   19 A'   20 A'    1 A"   21 A'   22 A'    2 A"
 -0.473  -0.455  -0.446  -0.398
 23 A'    3 A"   24 A'    4 A"

          Ground-State Mulliken Net Atomic Charges

     Atom                 Charge (a.u.)    Spin (a.u.)
  --------------------------------------------------------
      1 N                    -0.946347       0.018272
      2 N                    -0.846177       0.082324
      3 C                     1.041006      -0.035825
      4 C                     0.056399       0.979861
      5 C                    -0.278183       1.029967
      6 C                     0.778432      -0.319228
      7 O                    -0.536761       0.388005
      8 O                    -0.605245       0.050355
      9 H                     0.423934      -0.003200
     10 H                     0.422489      -0.014530
     11 H                     0.227059      -0.096709
     12 H                     0.263394      -0.079293
  --------------------------------------------------------
  Sum of atomic charges =    -0.000000

                    Cartesian Multipole Moments
 -----------------------------------------------------------------
    Charge (ESU x 10^10)
                 0.0000
    Dipole Moment (Debye)
         X      -0.0529      Y       4.1395      Z       0.0000
       Tot       4.1398
    Quadrupole Moments (Debye-Ang)
        XX     -56.8491     XY      -1.5217     YY     -39.2340
        XZ      -0.0000     YZ      -0.0000     ZZ     -45.8058

 Total job time:  164.03s(wall), 287.10s(cpu)
        *  Thank you very much for using Q-Chem.  Have a nice day.  *
